LAMMPS data file generated by tc387 with a python script for hex membrane

9724   atoms
0   bonds

4 atom types
0 bond types

-46 46 xlo xhi 
-46 46 ylo yhi 
-46 46 zlo zhi 

Masses

1 1
2 1
3 1
4 30

Atoms # hybrid

1	1	14.042988958341905	21.177155720530756	4.040011303538368	1	1	0	0.5457966138393687	0.8230740561929087	0.1570195985972183	1
2	1	8.558758958341905	24.035455720530756	3.655101303538367	1	1	0	0.3320654440292262	0.9325352326348355	0.1418117793991956	2
3	1	9.018798958341906	23.637355720530753	1.2760213035383672	1	1	0	0.3560291403368294	0.9331162027103879	0.05037264605283628	3
4	1	14.276988958341905	19.982255720530755	-1.863398696461633	1	1	0	0.5796784221991903	0.8113253082884829	-0.07565825115118362	4
5	1	9.190488958341906	23.281455720530754	-2.0535886964616332	1	1	0	0.3659521285741694	0.9270342759620281	-0.08177096540699968	5
6	1	12.265588958341905	17.827855720530753	13.086711303538367	1	1	0	0.48501463960148056	0.7049617467638758	0.5174840432050741	6
7	1	13.867788958341905	16.981655720530753	12.455711303538367	1	1	0	0.5499641041553789	0.6734527835310677	0.4939644040766788	7
8	1	21.976488958341903	10.730755720530755	1.550711303538367	1	1	0	0.8967979580392835	0.4378915957245069	0.06328011417828264	8
9	1	16.777088958341906	16.778555720530754	9.584171303538367	1	1	0	0.6556116934057195	0.6556690112422549	0.37452831023340377	9
10	1	8.852218958341904	22.886755720530754	8.076741303538368	1	1	0	0.34265678314162973	0.8859137046486127	0.31263914803300075	10
11	1	15.464788958341904	16.012355720530756	-8.955338696461633	1	1	0	0.6445042278496309	0.6673243965704129	-0.3732190375984127	11
12	1	8.786668958341904	22.456655720530755	9.742001303538368	1	1	0	0.3378454874150243	0.86345346952115	0.37457780580967825	12
13	1	5.575328958341905	24.657655720530755	4.955301303538367	1	1	0	0.21642351787965533	0.9571626416263946	0.19235524007257113	13
14	1	17.600588958341906	15.196755720530756	10.231411303538367	1	1	0	0.692805632980888	0.5981844125294593	0.4027353517097012	14
15	1	7.622498958341905	23.689355720530756	-1.105008696461633	1	1	0	0.30600131516109724	0.9509970477422429	-0.04436000794879249	15
16	1	14.422088958341904	20.891155720530755	3.1818313035383667	1	1	0	0.5637065460894854	0.8165586323211751	0.12436611225585095	16
17	1	10.223888958341904	20.422855720530755	11.855011303538367	1	1	0	0.3973140473856042	0.7936595847782251	0.4607016510060771	17
18	1	-1.505301041658095	18.116855720530754	17.988311303538367	1	1	0	-0.05885897066461365	0.708389518029683	0.703363286160129	18
19	1	6.986448958341905	21.578555720530755	12.251611303538366	1	1	0	0.27101529284834514	0.8370659590751396	0.4752591831831791	19
20	1	-4.936421041658095	25.108255720530753	-0.685870696461633	1	1	0	-0.19284319286224869	0.9808636985151911	-0.02679380342157541	20
21	1	16.801188958341903	16.561355720530756	-5.135898696461632	1	1	0	0.6958724002125065	0.6859389763780275	-0.21271888328954	21
22	1	11.849988958341905	21.513455720530754	8.091081303538367	1	1	0	0.4582441081145695	0.8319344738441279	0.3128855519322949	22
23	1	15.733488958341905	13.625355720530756	-12.549188696461632	1	1	0	0.6473672081768913	0.560626350364605	-0.5163465823011911	23
24	1	14.103188958341905	14.312755720530756	14.621711303538367	1	1	0	0.5675204140355116	0.5759535007648183	0.5883860506586741	24
25	1	13.763988958341905	16.386255720530755	13.256711303538367	1	1	0	0.5467684341482142	0.6509368329910469	0.5266170514469656	25
26	1	4.291368958341905	25.484155720530755	2.281301303538367	1	1	0	0.16541245153879724	0.9822964918770809	0.08793362793553353	26
27	1	24.593988958341903	6.033465720530755	5.031371303538367	1	1	0	0.9525818026789231	0.2336900151577589	0.19487659177166294	27
28	1	15.122388958341904	20.090755720530755	1.830681303538367	1	1	0	0.5997942851605093	0.796852964100152	0.07260970385282949	28
29	1	12.544188958341906	20.638155720530754	8.561431303538367	1	1	0	0.48954884776128277	0.8054235619740876	0.33411796041603825	29
30	1	8.061878958341905	24.132655720530753	1.274091303538367	1	1	0	0.3164558761831029	0.9472879399613836	0.050012370798659424	30
31	1	12.701088958341904	21.852055720530753	2.997321303538367	1	1	0	0.49901754461521386	0.8585530914884371	0.11776280933236216	31
32	1	6.2805389583419045	24.721955720530755	3.1181713035383667	1	1	0	0.24440609959983248	0.9620506794419853	0.12134310307393364	32
33	1	17.895688958341903	16.549755720530754	7.643231303538367	1	1	0	0.7005436097099437	0.6478557846678518	0.2992014925881295	33
34	1	24.424788958341903	7.054665720530755	3.3755013035383667	1	1	0	0.9523709177661924	0.2750753948480247	0.13161748418194102	34
35	1	4.039138958341905	24.892355720530755	-1.574018696461633	1	1	0	0.15985823909942265	0.9851723829164808	-0.06229541982116332	35
36	1	-5.288431041658095	22.472655720530753	12.351811303538367	1	1	0	-0.2019787565803153	0.8582884079863481	0.4717473800738377	36
37	1	18.813988958341906	14.295155720530756	9.289141303538367	1	1	0	0.7410265681810577	0.5630432870272238	0.36587140115535616	37
38	1	-1.710771041658095	24.823655720530756	6.438871303538368	1	1	0	-0.06656144005403018	0.9658208094068326	0.25051893903388733	38
39	1	4.7394589583419044	15.228855720530756	18.873111303538366	1	1	0	0.19180472951694086	0.6163080170127303	0.7637901373419071	39
40	1	16.973488958341903	17.802355720530755	-0.362445696461633	1	1	0	0.6899823252084343	0.7236762473753309	-0.01473363107727368	40
41	1	13.599588958341904	21.022155720530755	5.325501303538367	1	1	0	0.5312822558322995	0.821252638434388	0.20804631335906756	41
42	1	5.661158958341905	23.503255720530753	8.608171303538366	1	1	0	0.22060237979115407	0.9158679667789678	0.3354406914174827	42
43	1	5.858458958341905	24.735055720530752	4.009711303538367	1	1	0	0.22765725167575543	0.9611938643633435	0.15581569519693497	43
44	1	15.801488958341904	14.762255720530757	13.003911303538366	1	1	0	0.6262188961551511	0.5850336956499621	0.5153498511228771	44
45	1	23.517088958341905	4.694365720530755	8.440221303538367	1	1	0	0.9250327685384463	0.18465049507984305	0.3319918248946295	45
46	1	25.622588958341904	-19.026944279469244	30.338911303538367	1	1	0	0.5818822227957982	-0.43209687546991027	0.6889886566579757	46
47	1	12.315288958341904	17.500455720530756	13.994611303538367	1	1	0	0.4816463941257984	0.6844363475241348	0.5473240696456146	47
48	1	14.980288958341905	20.172355720530753	2.775141303538367	1	1	0	0.5925951207818393	0.7979845787958206	0.10977993819279538	48
49	1	15.627288958341905	18.104555720530755	-4.970038696461633	1	1	0	0.6397493472310576	0.741163597537188	-0.20346325074363938	49
50	1	8.947318958341905	11.987155720530756	18.928011303538366	1	1	0	0.3708731954320831	0.4968767478743247	0.7845805059596055	50
51	1	14.903388958341905	19.739455720530753	-1.1077986964616329	1	1	0	0.601949903138266	0.7972792961512791	-0.044744139731958475	51
52	1	16.936188958341905	13.309155720530756	12.858811303538367	1	1	0	0.675119895573154	0.5305370554327619	0.5125851728386496	52
53	1	11.634988958341905	20.685155720530755	9.916371303538368	1	1	0	0.45234916070641146	0.8042047021071655	0.38553214381803524	53
54	1	7.705138958341905	18.603155720530754	14.893711303538367	1	1	0	0.3076475718937765	0.7427790359039421	0.5946698876935622	54
55	1	17.586688958341906	16.866255720530756	4.378441303538367	1	1	0	0.7103585223142868	0.6812589066077794	0.1768532497384086	55
56	1	13.601388958341905	19.903755720530754	-3.6737786964616332	1	1	0	0.5577648168749508	0.8162118367901557	-0.1506540624745737	56
57	1	8.680788958341905	16.865255720530755	16.069611303538366	1	1	0	0.34918537978792147	0.6784061624185376	0.6464013067243274	57
58	1	12.909288958341905	13.625355720530756	16.442611303538367	1	1	0	0.517341125480589	0.546037576994337	0.6589393935686584	58
59	1	4.308188958341905	22.141655720530753	12.152811303538368	1	1	0	0.1681419106253536	0.8641543658502114	0.47430531292963035	59
60	1	7.408638958341905	24.483555720530756	1.7083013035383672	1	1	0	0.2889833984130728	0.9550122737980348	0.06663446808325585	60
61	1	0.9953119583419049	23.281155720530755	10.303211303538367	1	1	0	0.039064626269605725	0.913753361169414	0.4043868814959437	61
62	1	19.122588958341904	14.752255720530757	8.333181303538368	1	1	0	0.748471250421957	0.577413409331972	0.3261664329991984	62
63	1	15.443788958341905	19.765355720530753	3.5918013035383667	1	1	0	0.6094793124383255	0.7800271971562455	0.14174815486022266	63
64	1	18.167588958341906	15.520855720530756	9.582441303538367	1	1	0	0.7056870191585705	0.6028794703208227	0.372212540434596	64
65	1	8.336278958341905	12.867255720530755	19.052711303538366	1	1	0	0.3408770938222738	0.5261523465566659	0.7790805575293193	65
66	1	16.947988958341906	10.955855720530757	13.913911303538367	1	1	0	0.6914022544120305	0.4469499810748632	0.5676254372481393	66
67	1	6.9086589583419045	23.331855720530754	8.470021303538367	1	1	0	0.26813899556629883	0.9055564032505693	0.3287386189491413	67
68	1	21.658088958341907	10.990855720530757	0.810275303538367	1	1	0	0.8912504980766616	0.4522839320705095	0.03334358212521972	68
69	1	4.186268958341905	24.940655720530753	-0.492228696461633	1	1	0	0.1655022263660972	0.9860174035289623	-0.01946003612198599	69
70	1	22.471388958341905	7.731935720530755	-3.688868696461633	1	1	0	0.93440054115698	0.321507715203912	-0.15338975764340684	70
71	1	9.497888958341905	10.097455720530755	20.054211303538366	1	1	0	0.38959165454036193	0.4141851413575989	0.8225989371443956	71
72	1	-3.254171041658095	23.788555720530756	9.400061303538367	1	1	0	-0.12620593889783766	0.9225873413842972	0.36456091192607215	72
73	1	15.016788958341905	19.055755720530755	7.654541303538367	1	1	0	0.5902715586184933	0.7490330097209362	0.3008804371083147	73
74	1	12.477688958341904	20.576255720530753	9.490501303538368	1	1	0	0.4823631858670329	0.7954380250787152	0.3668843212500086	74
75	1	14.018288958341905	15.705655720530755	13.822211303538367	1	1	0	0.5566348512608601	0.623636405408065	0.5488490468348358	75
76	1	19.247988958341907	-2.8981242794692443	15.165511303538368	1	1	0	0.780046691175904	-0.11744978967461324	0.6145996310533491	76
77	1	15.528688958341904	18.653455720530754	6.923871303538367	1	1	0	0.6152538048860797	0.7390585024349657	0.27432696832755554	77
78	1	13.731588958341904	19.536555720530753	9.102881303538368	1	1	0	0.5373191081679284	0.7644683166875239	0.3561970926026288	78
79	1	2.567668958341905	19.213155720530754	15.668211303538367	1	1	0	0.10301783733286002	0.7708539468213594	0.6286266919732195	79
80	1	11.435388958341905	22.369355720530756	-0.47705869646163296	1	1	0	0.45509727003483136	0.8902393051899904	-0.018985634087040657	80
81	1	3.920388958341905	24.821655720530753	-3.572998696461633	1	1	0	0.15445494662902104	0.9779201886080193	-0.14076851272455138	81
82	1	16.074888958341905	13.877855720530755	13.322811303538368	1	1	0	0.6412056378305098	0.5535689454566896	0.5314289723381084	82
83	1	9.703858958341906	21.653455720530754	10.672711303538367	1	1	0	0.3729650798341248	0.8322444582265837	0.41020264623167074	83
84	1	16.615388958341907	18.514955720530754	2.481951303538367	1	1	0	0.6645970467228006	0.7405776008566043	0.09927528693893493	84
85	1	23.327388958341906	6.130085720530755	-2.834868696461633	1	1	0	0.9605512806435164	0.252418378234513	-0.11673131363759748	85
86	1	11.549788958341905	14.716355720530755	16.938311303538367	1	1	0	0.4576641560938391	0.5831403972753068	0.6711861122613545	86
87	1	18.896588958341905	14.944255720530755	-0.656633696461633	1	1	0	0.7840685399223681	0.6200759718515458	-0.027245436982488908	87
88	1	16.982688958341903	0.052992720530755356	17.180511303538367	1	1	0	0.7029987953165933	0.002193634870487976	0.7111876557909828	88
89	1	11.806288958341904	22.110955720530754	6.598021303538367	1	1	0	0.4554996089252542	0.8530649825023285	0.25455891635777017	89
90	1	9.536648958341905	21.037655720530754	11.412511303538368	1	1	0	0.37015618359937486	0.8165570933150034	0.44296604057207206	90
91	1	16.740788958341906	15.723355720530757	10.997311303538368	1	1	0	0.6574278945376216	0.6174722512862041	0.4318756561504439	91
92	1	11.932788958341904	20.140955720530755	10.552211303538368	1	1	0	0.46469490649796474	0.7843430038028766	0.4109314982577126	92
93	1	10.731788958341905	18.490155720530755	13.663411303538368	1	1	0	0.4229751615342726	0.72875795760092	0.5385200571551554	93
94	1	14.888288958341905	18.413055720530753	-5.8134486964616325	1	1	0	0.610618006042782	0.7551803569022946	-0.23842877184865913	94
95	1	14.573588958341904	19.680155720530752	6.9503213035383675	1	1	0	0.5725024387168882	0.7731065543661291	0.2730333555801324	95
96	1	8.607438958341906	19.601855720530754	14.184311303538367	1	1	0	0.33516716639363997	0.7632814440746087	0.5523263597756657	96
97	1	19.430588958341904	14.202855720530756	1.767211303538367	1	1	0	0.805152765637865	0.5885291788045084	0.07322861245024416	97
98	1	16.092088958341904	15.585455720530756	-8.591818696461633	1	1	0	0.6706893912506442	0.6495738270293342	-0.358091585634604	98
99	1	13.202488958341904	8.993705720530755	18.417011303538366	1	1	0	0.5415320577294835	0.36889862061767753	0.7554183199775116	99
100	1	20.440988958341904	13.036755720530756	2.948481303538367	1	1	0	0.8369553624900592	0.5337893695851909	0.12072543276782291	100
101	1	20.237088958341904	12.984855720530756	6.275051303538367	1	1	0	0.8143697661468712	0.5225293982917738	0.2525171517080121	101
102	1	23.997088958341905	6.142865720530755	6.704771303538367	1	1	0	0.9351138777753566	0.23937399217674646	0.261270219239205	102
103	1	20.714688958341906	10.426255720530756	9.071441303538368	1	1	0	0.8318573984606694	0.4186960266122492	0.36428959074527745	103
104	1	14.761588958341905	20.455855720530753	3.864931303538367	1	1	0	0.5784260251046544	0.8015532303420784	0.15144554272017605	104
105	1	18.221288958341905	15.688055720530755	-0.367721696461633	1	1	0	0.7577315759440382	0.6523871725975512	-0.015291692108374506	105
106	1	22.754888958341905	9.653805720530755	2.5777013035383667	1	1	0	0.9156133541084936	0.38845073917385603	0.10372178659027746	106
107	1	15.125388958341905	19.264555720530755	6.581081303538367	1	1	0	0.5963892085428446	0.7595952190545417	0.25948991333599514	107
108	1	15.302188958341905	19.839055720530755	0.718900303538367	1	1	0	0.6104965109351408	0.7914994600187093	0.028681264374344977	108
109	1	13.494688958341905	20.000455720530756	8.120871303538367	1	1	0	0.5300914231417351	0.785647603224349	0.31899988504606946	109
110	1	11.489588958341905	17.701955720530755	14.519011303538367	1	1	0	0.4485344281972778	0.6910548859380281	0.5667980339970491	110
111	1	5.752978958341905	23.332855720530755	9.919501303538368	1	1	0	0.2212822636564258	0.8974736686497331	0.3815431481123427	111
112	1	21.223188958341904	11.866155720530756	5.733971303538367	1	1	0	0.8495341192795599	0.4749853647848206	0.22952272963724804	112
113	1	13.520088958341905	12.067555720530756	16.814411303538364	1	1	0	0.5469001980791225	0.4881438749570555	0.6801586070049598	113
114	1	18.516488958341906	15.882755720530756	1.6988713035383671	1	1	0	0.7571901885500203	0.649489588754061	0.069471522681351	114
115	1	13.945788958341906	19.973455720530755	7.394231303538367	1	1	0	0.5478006465471003	0.7845717434969358	0.29045073755932704	115
116	1	17.058288958341905	17.346855720530755	7.7475713035383675	1	1	0	0.6680933563791361	0.6793951661421798	0.30343611417347877	116
117	1	10.593588958341904	17.980555720530756	14.244311303538367	1	1	0	0.419264608780254	0.7116200835679601	0.5637499840240088	117
118	1	8.413598958341904	15.909355720530757	16.819711303538366	1	1	0	0.3415540207050399	0.6458478042605544	0.6828041188159616	118
119	1	10.008668958341906	16.125055720530753	16.310511303538366	1	1	0	0.39995542372723253	0.6443717461506031	0.6517827182382122	119
120	1	18.785388958341905	16.033355720530754	6.237581303538367	1	1	0	0.7374667262499798	0.6294288811502391	0.2448716219738333	120
121	1	12.426988958341905	14.233955720530757	16.752311303538367	1	1	0	0.4921143760739076	0.5636710760711291	0.663399094710118	121
122	1	16.562088958341906	8.058425720530757	15.683911303538368	1	1	0	0.6846258191573533	0.3331105347830098	0.6483246558320147	122
123	1	8.887908958341905	9.798735720530756	20.557511303538366	1	1	0	0.36356872768844556	0.40082699941756605	0.8409253812229212	123
124	1	16.460688958341905	15.117555720530756	12.373711303538368	1	1	0	0.6443521888003375	0.5917753590075903	0.48436781608572194	124
125	1	17.572388958341904	10.473755720530756	13.758011303538368	1	1	0	0.7127885554119348	0.42484679957135674	0.5580660105827472	125
126	1	10.827688958341906	17.470155720530755	14.954411303538368	1	1	0	0.42598347805050363	0.6873117361006297	0.5883371940021593	126
127	1	15.330688958341906	16.199055720530755	12.023211303538368	1	1	0	0.605055425344101	0.6393272067414374	0.47451939368360957	127
128	1	19.070588958341904	14.844655720530756	2.200511303538367	1	1	0	0.7858610351282309	0.61171873276392	0.0906786934890965	128
129	1	0.8004879583419049	19.864655720530756	15.235411303538367	1	1	0	0.03195915755861961	0.7930883349390948	0.6082676263222279	129
130	1	21.554488958341906	10.497755720530757	7.6887313035383675	1	1	0	0.8560951945287186	0.4169469405213903	0.3053788903881335	130
131	1	23.900188958341904	7.917545720530755	5.313571303538367	1	1	0	0.9288085931050782	0.3076914795255027	0.20649588567710545	131
132	1	17.878888958341904	16.338955720530755	8.789331303538367	1	1	0	0.6939041734003597	0.6341372548314901	0.3411259887084906	132
133	1	22.701088958341906	2.7346257205307554	-7.536348696461633	1	1	0	0.9429250938033232	0.11358693932173292	-0.313033983285385	133
134	1	21.209288958341904	7.577735720530755	-6.734718696461632	1	1	0	0.9022269082045615	0.3223510738032878	-0.2864897752617097	134
135	1	22.306788958341905	10.053755720530756	6.555571303538367	1	1	0	0.8806213156841243	0.3968994195764643	0.2587990515875737	135
136	1	9.478698958341905	7.198015720530755	21.458211303538366	1	1	0	0.3862869977625802	0.2933419338193719	0.8744900601051355	136
137	1	5.737708958341905	11.414055720530756	20.921311303538367	1	1	0	0.23406487321315417	0.4656265287192192	0.8534667954177246	137
138	1	10.285688958341904	21.455955720530753	10.206511303538367	1	1	0	0.3972741027319222	0.8287141086661632	0.3942159476685239	138
139	1	22.569988958341906	7.131415720530755	9.361111303538367	1	1	0	0.8867068685022976	0.28017183850693533	0.36776986045418797	139
140	1	16.187988958341904	10.372355720530756	14.860211303538367	1	1	0	0.6661878248158665	0.42685580731854916	0.6115455026615225	140
141	1	17.446288958341906	13.973355720530757	11.774111303538367	1	1	0	0.6905659230548304	0.5530989034036329	0.4660475393874845	141
142	1	11.655888958341905	15.444055720530756	16.360711303538366	1	1	0	0.46000280093374324	0.6095038237419484	0.6456798835158601	142
143	1	16.135488958341906	17.283055720530754	9.230061303538367	1	1	0	0.6357029484079835	0.6809145671015282	0.363644213063174	143
144	1	13.387188958341905	20.630055720530756	7.084311303538367	1	1	0	0.5230793617449541	0.8060808294136922	0.2768062097717924	144
145	1	21.037788958341906	12.200055720530756	1.729661303538367	1	1	0	0.8628847307184756	0.5003967772471791	0.07094368762293653	145
146	1	19.603388958341906	11.125955720530756	10.541011303538367	1	1	0	0.787804131777091	0.4471203374696728	0.42361309443400114	146
147	1	18.999088958341904	11.959755720530756	11.036611303538367	1	1	0	0.7594728378539954	0.4780813246902526	0.4411793915681147	147
148	1	17.164388958341906	17.412855720530754	5.947001303538367	1	1	0	0.6821205162374321	0.6919946968158052	0.23633649931142908	148
149	1	14.526188958341905	17.917455720530754	10.746911303538367	1	1	0	0.5708445904434196	0.7041132882070102	0.4223279897565353	149
150	1	19.646888958341904	5.705915720530755	13.478111303538368	1	1	0	0.8019357429343533	0.23290088177150306	0.5501420211857875	150
151	1	10.493388958341905	22.255655720530754	7.335051303538367	1	1	0	0.4086935807649128	0.8668070596453025	0.28568352838520217	151
152	1	19.613088958341905	14.499755720530755	6.699371303538367	1	1	0	0.775397941676694	0.5732437539234467	0.2648577554675365	152
153	1	11.546388958341906	7.288595720530755	20.395811303538366	1	1	0	0.4704269817228164	0.2969544935804326	0.830973214736522	153
154	1	12.615488958341905	15.148555720530755	15.784711303538367	1	1	0	0.4995356139133543	0.599837478098873	0.625027335642364	154
155	1	21.792788958341905	4.246905720530755	11.847711303538368	1	1	0	0.8659598192780841	0.1687553491786618	0.4707815029495701	155
156	1	18.932888958341906	15.079255720530757	3.257501303538367	1	1	0	0.775229033532561	0.6174375640367761	0.1333821580441079	156
157	1	21.470888958341906	11.110855720530756	-0.6919286964616329	1	1	0	0.8877659148538978	0.4594052445934864	-0.028609468076507796	157
158	1	15.989788958341904	15.633855720530756	11.834111303538368	1	1	0	0.6319842736526475	0.617916282552017	0.46773426816177505	158
159	1	12.927788958341905	1.9353157205307552	20.233211303538365	1	1	0	0.5366787859073374	0.08034188170836633	0.8399530122575816	159
160	1	7.302418958341905	20.209855720530754	13.911111303538368	1	1	0	0.28526758467125546	0.7894941061091104	0.5434348733333231	160
161	1	18.203688958341903	15.830955720530756	-1.133808696461633	1	1	0	0.7537394492518541	0.6554943821128778	-0.046946327438556465	161
162	1	20.816088958341904	10.985455720530757	-2.662818696461633	1	1	0	0.8787929943423393	0.46377307217413927	-0.11241623824424124	162
163	1	5.5981289583419045	8.721715720530756	-24.557888696461635	1	1	0	0.21002050180797416	0.3272055942053369	-0.9213185594250554	163
164	1	-17.283611041658094	16.427855720530754	-5.523158696461633	1	1	0	-0.706128532152656	0.6711663215744953	-0.22565075861626654	164
165	1	6.661258958341905	11.648655720530757	20.216311303538365	1	1	0	0.2745276791744697	0.48007117580303804	0.833166381661051	165
166	1	12.673188958341905	-12.787244279469244	18.336111303538367	1	1	0	0.49317757434618337	-0.4976160410020309	0.7135503877789431	166
167	1	-13.709011041658096	2.6190257205307557	21.369511303538367	1	1	0	-0.5371119534837945	0.10261207148378196	0.8372463868005817	167
168	1	-10.781311041658094	-6.766764279469245	21.722111303538366	1	1	0	-0.428222478043547	-0.26876884980819854	0.8627797022826986	168
169	1	-18.559011041658096	-2.9653642794692443	-16.028688696461636	1	1	0	-0.7513405515136605	-0.12004941578914419	-0.648903315926058	169
170	1	-9.728201041658096	-20.742544279469247	9.464861303538367	1	1	0	-0.3924465863937215	-0.8367775974961619	0.3818231647719486	170
171	1	19.152588958341905	-7.635714279469245	-14.410588696461632	1	1	0	0.7613728539397483	-0.303542543802981	-0.5728641212235744	171
172	1	10.692688958341904	-24.431144279469247	4.509681303538367	1	1	0	0.39533425022181695	-0.9032777576729146	0.16673368914213205	172
173	1	4.237308958341905	-16.454244279469247	-17.673388696461636	1	1	0	0.17283687941660072	-0.6711571571440854	-0.7208852082875614	173
174	1	15.006688958341904	18.325555720530755	9.295651303538367	1	1	0	0.5897752086403448	0.7202093998568799	0.36532673544517713	174
175	1	14.587488958341904	3.6461657205307554	-20.221788696461633	1	1	0	0.5788822390866288	0.144692522641105	-0.802470826361809	175
176	1	-21.343911041658096	7.411435720530755	-9.393198696461633	1	1	0	-0.8722894750136658	0.3028928185252161	-0.3838841130682979	176
177	1	-10.192911041658094	14.409655720530756	18.601211303538367	1	1	0	-0.39750041160897653	0.5619438898902489	0.7254050505653444	177
178	1	14.463388958341906	19.192355720530752	-3.475858696461633	1	1	0	0.5956412930479853	0.7903928747916616	-0.14314521820409096	178
179	1	-4.526511041658095	18.655455720530753	-17.681088696461636	1	1	0	-0.17343893343109656	0.7148071247506964	-0.6774730332462878	179
180	1	-19.784711041658095	13.629055720530756	11.176111303538367	1	1	0	-0.7466771832791805	0.5143620705267599	0.4217876768869541	180
181	1	6.4866189583419045	-13.058244279469244	20.719511303538365	1	1	0	0.25602794221798886	-0.5154110998847597	0.8178025989926935	181
182	1	-10.963011041658095	-20.400444279469244	6.406181303538367	1	1	0	-0.45623607271313604	-0.8489837823113707	0.2665992935616542	182
183	1	-1.821331041658095	20.772455720530754	-14.982488696461633	1	1	0	-0.07093353281219951	0.8090037646867451	-0.5835077914179502	183
184	1	6.051078958341905	17.359655720530753	16.674711303538366	1	1	0	0.2438011195501575	0.6994295610431788	0.6718327941125202	184
185	1	-14.797911041658095	-14.229444279469243	14.194311303538367	1	1	0	-0.592897322239358	-0.5701209708925341	0.5687133230635212	185
186	1	23.508588958341903	-8.161524279469244	1.802301303538367	1	1	0	0.9422204287048286	-0.327112568053883	0.07223594363253377	186
187	1	4.010138958341905	-0.11320027946924464	25.209711303538366	1	1	0	0.15709451745890618	-0.004434545402084323	0.9875736161883985	187
188	1	0.723373958341905	6.658155720530755	-25.998188696461636	1	1	0	0.0269443365621432	0.24800393565225076	-0.9683842474081351	188
189	1	-2.839631041658095	-25.136944279469247	-4.011548696461633	1	1	0	-0.11086710691489002	-0.9814163347496964	-0.1566220370535199	189
190	1	14.317788958341906	-10.581844279469244	-18.196688696461635	1	1	0	0.562415084230386	-0.41566395894410035	-0.7147816073914082	190
191	1	7.0754189583419045	-23.673344279469244	11.331111303538368	1	1	0	0.2602941232365722	-0.8709070698968215	0.41685470491795684	191
192	1	-22.784711041658095	8.531185720530756	1.6646113035383672	1	1	0	-0.9343214912473077	0.34983415633143683	0.06825990080038823	192
193	1	-8.308131041658095	-23.364144279469247	-2.7930886964616333	1	1	0	-0.3329358402440308	-0.9362828978339529	-0.11192882338636896	193
194	1	25.104788958341906	3.9746357205307556	5.582881303538367	1	1	0	0.9647010215546101	0.15273321541423984	0.2145332233494829	194
195	1	-6.432641041658095	-12.303944279469244	-20.358588696461634	1	1	0	-0.2610416639276261	-0.4993037955616369	-0.8261676400293342	195
196	1	-23.223211041658097	4.5193457205307555	-5.312638696461633	1	1	0	-0.9577366524336214	0.18638004166637853	-0.21909583440512886	196
197	1	10.680488958341904	-18.140344279469247	16.121411303538366	1	1	0	0.402809424952678	-0.6841542251630213	0.6080111539773582	197
198	1	6.525508958341905	11.512355720530756	-23.080788696461635	1	1	0	0.2452714628280705	0.4327098999016865	-0.8675275511758983	198
199	1	-15.222611041658094	5.147475720530755	-20.179788696461635	1	1	0	-0.5901086791319686	0.19954330370747098	-0.7822750262910299	199
200	1	-7.756401041658095	-15.061844279469245	18.924011303538364	1	1	0	-0.3053750627913146	-0.5929955939478705	0.7450518750956963	200
201	1	14.609488958341904	-18.829044279469247	-11.483788696461632	1	1	0	0.5522469465683926	-0.7117485245232081	-0.4340937085986426	201
202	1	-12.397511041658095	-11.832544279469245	18.418911303538366	1	1	0	-0.492770963641704	-0.4703149065433189	0.7321070045251414	202
203	1	-6.012321041658095	14.707555720530756	-21.139088696461634	1	1	0	-0.22735462520415756	0.5561630517302453	-0.7993700859354055	203
204	1	-21.584111041658094	11.924555720530757	6.836571303538367	1	1	0	-0.8434849064802336	0.4659993986936767	0.26716618977176654	204
205	1	8.925888958341904	-23.713944279469246	-8.313178696461632	1	1	0	0.3347160170233493	-0.8892601077811373	-0.31173971299323566	205
206	1	15.220288958341905	14.346655720530755	-12.325188696461632	1	1	0	0.6269314278249217	0.5909460313140317	-0.5076807785209131	206
207	1	7.838138958341905	23.326155720530753	-4.242758696461633	1	1	0	0.31389064608169587	0.934132723167302	-0.16990796864907828	207
208	1	-16.760711041658094	-14.085644279469244	11.301911303538366	1	1	0	-0.6802626506646658	-0.5716904068124439	0.4587077554056667	208
209	1	16.028088958341904	13.163255720530756	14.006111303538367	1	1	0	0.6404363082026202	0.5259658166044918	0.5596439000823367	209
210	1	15.009388958341905	15.267555720530757	-11.176088696461633	1	1	0	0.6214735048205023	0.6321630673983644	-0.46275321611374237	210
211	1	5.651738958341904	-21.165944279469247	-13.482388696461634	1	1	0	0.2197085115533302	-0.822815446279426	-0.5241210845930634	211
212	1	10.038188958341905	-5.563734279469245	21.869911303538366	1	1	0	0.40642992773377346	-0.22526654265214358	0.885477102247071	212
213	1	9.142988958341904	23.532655720530755	4.184961303538367	1	1	0	0.35727504156682377	0.9195713337331992	0.16353319800447105	213
214	1	7.142628958341905	4.832815720530755	-25.613288696461634	1	1	0	0.2642856611463347	0.17881985825501584	-0.9477217669791598	214
215	1	19.186888958341903	-9.913314279469244	14.133311303538367	1	1	0	0.7433869990727968	-0.3840867046804965	0.5475885069075304	215
216	1	-1.494451041658095	25.489055720530754	-2.4376086964616333	1	1	0	-0.0582656436284996	0.9937670727517803	-0.09503746570124093	216
217	1	-0.793376041658095	-19.983244279469247	-15.320088696461633	1	1	0	-0.031492485551515244	-0.793220362979893	-0.6081197900971771	217
218	1	-20.113211041658094	13.366455720530755	-3.545828696461633	1	1	0	-0.8240238840515194	0.547614139583274	-0.1452700679462855	218
219	1	-24.108511041658094	-1.7674342794692448	-2.786358696461633	1	1	0	-0.9907633947287227	-0.07263448097898079	-0.11450819987464314	219
220	1	16.955188958341903	-18.554744279469247	-5.7341286964616325	1	1	0	0.6576734525438336	-0.7197184744639878	-0.2224206540191451	220
221	1	4.410278958341904	17.072055720530756	17.161011303538366	1	1	0	0.17924321112610625	0.6938450190511771	0.6974603650409632	221
222	1	13.738388958341904	-16.270044279469246	-14.574088696461633	1	1	0	0.5324070275835806	-0.6305168633492321	-0.5647930966397009	222
223	1	-14.955611041658095	7.381405720530755	18.971011303538365	1	1	0	-0.5920729203502979	0.2922201191961803	0.7510373219253755	223
224	1	-8.650111041658095	14.296855720530756	-20.028388696461633	1	1	0	-0.3316286342576973	0.5481139737912701	-0.7678499336948056	224
225	1	2.573988958341905	18.900855720530753	-17.279488696461634	1	1	0	0.10000705086785833	0.7343539036417618	-0.6713590201842974	225
226	1	-13.330211041658096	13.551555720530756	-17.423488696461636	1	1	0	-0.5169556171964907	0.5255395304385381	-0.6756960054606185	226
227	1	-4.6553910416580955	20.494455720530755	-14.154188696461633	1	1	0	-0.1837284148073541	0.8088286952005456	-0.5586054165621379	227
228	1	-1.476351041658095	15.029455720530756	-21.382188696461636	1	1	0	-0.05639768325750271	0.5741361365567795	-0.8168151553582006	228
229	1	1.328418958341905	9.537665720530756	-24.868488696461636	1	1	0	0.04981352600359292	0.3576467773211005	-0.9325274233495338	229